============================== echo of input deck ==============================
echo

#print low

MEMORY STACK 1500 mb HEAP 150 mb GLOBAL 1800 mb noverify

start neutral

title "Title"
charge -1

geometry units angstroms print xyz noautoz
   C        2.20349       -0.05670        0.02012
   C        1.73842       -1.36909        0.07531
   C        0.36516       -1.64062        0.07655
   C       -0.54892       -0.57093        0.02125
   C        1.31507        1.02178       -0.03537
   C       -0.05466        0.73263       -0.03332
   C       -1.96839       -0.48171        0.00592
   C       -2.30473        0.85138       -0.05659
   H        3.27446        0.13301        0.02014
   H        2.44728       -2.19224        0.11791
   H        0.01028       -2.66580        0.11973
   H        1.68092        2.04219       -0.07825
   H       -2.66632       -1.30780        0.03744
   H       -3.26662        1.34491       -0.08642
   N       -1.14219        1.57566       -0.07983
   H       -1.08324        2.58331       -0.12459
symmetry c1
end

basis
  * library 6-31G*
end

dft
  xc b3lyp
  iterations 600
  grid fine
  direct
  mult 2
  disp vdw 3
end

task dft optimize

================================================================================

         Total DFT energy =     -363.757223189944
@ Step       Energy      Delta E   Gmax     Grms     Xrms     Xmax   Walltime
@ ---- ---------------- -------- -------- -------- -------- -------- --------
@    0    -363.75722319  0.0D+00  0.03690  0.01132  0.00000  0.00000     17.1
         Total DFT energy =     -363.762024944565
         Total DFT energy =   -363.762024944565
@    1    -363.76202494 -4.8D-03  0.00860  0.00268  0.02799  0.07142     31.5
         Total DFT energy =     -363.762449708045
         Total DFT energy =     -363.762539949700
@    2    -363.76253995 -5.2D-04  0.00317  0.00098  0.01264  0.03577     51.3
         Total DFT energy =     -363.762615162594
         Total DFT energy =     -363.762629821530
@    3    -363.76262982 -9.0D-05  0.00133  0.00044  0.00815  0.03497     67.6
         Total DFT energy =     -363.762643255550
         Total DFT energy =     -363.762645729316
@    4    -363.76264573 -1.6D-05  0.00065  0.00023  0.00242  0.00792     79.2
         Total DFT energy =     -363.762650802032
         Total DFT energy =     -363.762651913962
@    5    -363.76265191 -6.2D-06  0.00040  0.00012  0.00224  0.00814     89.4
         Total DFT energy =     -363.762653348653
         Total DFT energy =   -363.762653348653
@    6    -363.76265335 -1.4D-06  0.00027  0.00008  0.00073  0.00236     96.5
         Total DFT energy =     -363.762654409307
         Total DFT energy =   -363.762654409307
@    7    -363.76265441 -1.1D-06  0.00015  0.00005  0.00099  0.00338    102.4
         Total DFT energy =     -363.762654208343

                    DFT Final Alpha Molecular Orbital Analysis
                    ------------------------------------------

 Vector    1  Occ=1.000000D+00  E=-1.418258D+01

 Vector   70  Occ=0.000000D+00  E= 9.973925D-01

 Vector   71  Occ=0.000000D+00  E= 1.003703D+00

 Vector   72  Occ=0.000000D+00  E= 1.005328D+00

 Vector   73  Occ=0.000000D+00  E= 1.021677D+00

 Vector   74  Occ=0.000000D+00  E= 1.030956D+00

 Vector   75  Occ=0.000000D+00  E= 1.037803D+00

 Vector   76  Occ=0.000000D+00  E= 1.053852D+00

 Vector   77  Occ=0.000000D+00  E= 1.067185D+00

 Vector   78  Occ=0.000000D+00  E= 1.094678D+00

 Vector   79  Occ=0.000000D+00  E= 1.131211D+00

 Vector   80  Occ=0.000000D+00  E= 1.150489D+00

 Vector   81  Occ=0.000000D+00  E= 1.155843D+00

 Vector   82  Occ=0.000000D+00  E= 1.176386D+00

 Vector   83  Occ=0.000000D+00  E= 1.228985D+00

 Vector   84  Occ=0.000000D+00  E= 1.256834D+00

 Vector   85  Occ=0.000000D+00  E= 1.309234D+00

 Vector   86  Occ=0.000000D+00  E= 1.321280D+00

 Vector   87  Occ=0.000000D+00  E= 1.391337D+00

 Vector   88  Occ=0.000000D+00  E= 1.434154D+00

 Vector   89  Occ=0.000000D+00  E= 1.455369D+00

 Vector   90  Occ=0.000000D+00  E= 1.485094D+00

 Vector   91  Occ=0.000000D+00  E= 1.539616D+00

 Vector   92  Occ=0.000000D+00  E= 1.560738D+00

 Vector   93  Occ=0.000000D+00  E= 1.565654D+00

 Vector   94  Occ=0.000000D+00  E= 1.618136D+00

 Vector   95  Occ=0.000000D+00  E= 1.619800D+00

 Vector   96  Occ=0.000000D+00  E= 1.678384D+00

 Vector   97  Occ=0.000000D+00  E= 1.686211D+00

 Vector   98  Occ=0.000000D+00  E= 1.691191D+00

 Vector   99  Occ=0.000000D+00  E= 1.712071D+00

 Vector  100  Occ=0.000000D+00  E= 1.726516D+00

 Vector  101  Occ=0.000000D+00  E= 1.746981D+00

 Vector  102  Occ=0.000000D+00  E= 1.785920D+00

 Vector  103  Occ=0.000000D+00  E= 1.954304D+00

 Vector  104  Occ=0.000000D+00  E= 1.983878D+00

 Vector  105  Occ=0.000000D+00  E= 2.031512D+00

 Vector  106  Occ=0.000000D+00  E= 2.082413D+00

 Vector  107  Occ=0.000000D+00  E= 2.103972D+00

 Vector  108  Occ=0.000000D+00  E= 2.109789D+00

 Vector  109  Occ=0.000000D+00  E= 2.138768D+00

 Vector  110  Occ=0.000000D+00  E= 2.153094D+00

 Vector  111  Occ=0.000000D+00  E= 2.175814D+00

 Vector  112  Occ=0.000000D+00  E= 2.208463D+00

 Vector  113  Occ=0.000000D+00  E= 2.219003D+00

 Vector  114  Occ=0.000000D+00  E= 2.299736D+00

 Vector  115  Occ=0.000000D+00  E= 2.314639D+00

 Vector  116  Occ=0.000000D+00  E= 2.315521D+00

 Vector  117  Occ=0.000000D+00  E= 2.362361D+00

 Vector  118  Occ=0.000000D+00  E= 2.410369D+00

 Vector  119  Occ=0.000000D+00  E= 2.443526D+00

 Vector  120  Occ=0.000000D+00  E= 2.454815D+00

 Vector  121  Occ=0.000000D+00  E= 2.464866D+00

 Vector  122  Occ=0.000000D+00  E= 2.472218D+00

 Vector  123  Occ=0.000000D+00  E= 2.571521D+00

 Vector  124  Occ=0.000000D+00  E= 2.584384D+00

 Vector  125  Occ=0.000000D+00  E= 2.603674D+00

 Vector  126  Occ=0.000000D+00  E= 2.674927D+00

 Vector  127  Occ=0.000000D+00  E= 2.754415D+00

 Vector  128  Occ=0.000000D+00  E= 2.779570D+00

 Vector  129  Occ=0.000000D+00  E= 2.818424D+00

 Vector  130  Occ=0.000000D+00  E= 2.848491D+00

 Vector  131  Occ=0.000000D+00  E= 2.856349D+00

 Vector  132  Occ=0.000000D+00  E= 2.904243D+00

 Vector  133  Occ=0.000000D+00  E= 2.950871D+00

 Vector  134  Occ=0.000000D+00  E= 2.990568D+00

 Vector  135  Occ=0.000000D+00  E= 3.026152D+00

 Vector  136  Occ=0.000000D+00  E= 3.092486D+00

 Vector  137  Occ=0.000000D+00  E= 3.152140D+00

 Vector  138  Occ=0.000000D+00  E= 3.238891D+00

 Vector  139  Occ=0.000000D+00  E= 3.414261D+00

 Vector  140  Occ=0.000000D+00  E= 3.593638D+00

 Vector  141  Occ=0.000000D+00  E= 4.176674D+00

 Vector  142  Occ=0.000000D+00  E= 4.288524D+00

 Vector  143  Occ=0.000000D+00  E= 4.306214D+00

 Vector  144  Occ=0.000000D+00  E= 4.355384D+00

 Vector  145  Occ=0.000000D+00  E= 4.402070D+00

 Vector  146  Occ=0.000000D+00  E= 4.535301D+00

 Vector  147  Occ=0.000000D+00  E= 4.601946D+00

 Vector  148  Occ=0.000000D+00  E= 4.658138D+00

 Vector  149  Occ=0.000000D+00  E= 4.954079D+00

     Multipole analysis of the density
     ---------------------------------

     L   x y z        total         alpha         beta         nuclear
     -   - - -        -----         -----         ----         -------
     0   0 0 0     -1.000000    -32.000000    -31.000000     62.000000

     1   1 0 0     -0.519852     -0.163918     -0.134236     -0.221699
     1   0 1 0      0.912610      0.462222      0.426707      0.023681
     1   0 0 1     -0.044711     -0.017848     -0.017585     -0.009278

     2   2 0 0    -51.252370   -327.845471   -316.825292    593.418392
     2   1 1 0      0.457707     60.667214     58.995511   -119.205018
     2   1 0 1     -0.072731     -5.167456     -5.015111     10.109836
     2   0 2 0    -41.524396   -185.661080   -179.947711    324.084395
     2   0 1 1     -0.160867      7.754079      7.572839    -15.487786

         Total DFT energy =   -363.762654208343
@    8    -363.76265421  2.0D-07  0.00008  0.00003  0.00016  0.00068    108.3
@    8    -363.76265421  2.0D-07  0.00008  0.00003  0.00016  0.00068    108.3

 Output coordinates in angstroms (scale by  1.889725989 to convert to a.u.)

  No.       Tag          Charge          X              Y              Z
 ---- ---------------- ---------- -------------- -------------- --------------
    1 C                    6.0000     2.28141057    -0.09679235     0.02257224
    2 C                    6.0000     1.80007694    -1.40232684     0.07732643
    3 C                    6.0000     0.42247516    -1.71012758     0.07994634
    4 C                    6.0000    -0.52035295    -0.61948538     0.02358854
    5 C                    6.0000     1.37033290     1.01632754    -0.03479639
    6 C                    6.0000    -0.00058222     0.71324235    -0.03196099
    7 C                    6.0000    -1.93529055    -0.51559475     0.00752695
    8 C                    6.0000    -2.29604931     0.83659445    -0.05666703
    9 H                    1.0000     3.35593784     0.08904768     0.02283058
   10 H                    1.0000     2.51890822    -2.22526423     0.12017186
   11 H                    1.0000     0.07624759    -2.74165178     0.12347339
   12 H                    1.0000     1.72399471     2.04603999    -0.07774073
   13 H                    1.0000    -2.63370363    -1.34678648     0.03959238
   14 H                    1.0000    -3.25366030     1.33665638    -0.08478797
   15 N                    7.0000    -1.08902037     1.56508281    -0.07848034
   16 H                    1.0000    -1.01402299     2.56788526    -0.12430364

 Total times  cpu:      122.6s     wall:      108.4s
