============================== echo of input deck ==============================
echo

#print low

MEMORY STACK 1500 mb HEAP 150 mb GLOBAL 1800 mb noverify

start neutral

title "Title"
charge 0

geometry units angstroms print xyz noautoz
   C        2.20349       -0.05670        0.02012
   C        1.73842       -1.36909        0.07531
   C        0.36516       -1.64062        0.07655
   C       -0.54892       -0.57093        0.02125
   C        1.31507        1.02178       -0.03537
   C       -0.05466        0.73263       -0.03332
   C       -1.96839       -0.48171        0.00592
   C       -2.30473        0.85138       -0.05659
   H        3.27446        0.13301        0.02014
   H        2.44728       -2.19224        0.11791
   H        0.01028       -2.66580        0.11973
   H        1.68092        2.04219       -0.07825
   H       -2.66632       -1.30780        0.03744
   H       -3.26662        1.34491       -0.08642
   N       -1.14219        1.57566       -0.07983
   H       -1.08324        2.58331       -0.12459
symmetry c1
end

basis
  * library 6-31G*
end

dft
  xc b3lyp
  iterations 600
  grid fine
  direct
  mult 1
  disp vdw 3
end

task dft optimize

task dft freq

================================================================================

         Total DFT energy =     -363.824171787348
@ Step       Energy      Delta E   Gmax     Grms     Xrms     Xmax   Walltime
@ ---- ---------------- -------- -------- -------- -------- -------- --------
@    0    -363.82417179  0.0D+00  0.02216  0.00745  0.00000  0.00000     12.9
         Total DFT energy =     -363.825850827201
         Total DFT energy =   -363.825850827201
@    1    -363.82585083 -1.7D-03  0.00142  0.00051  0.01504  0.03459     21.7
         Total DFT energy =     -363.825867543749
         Total DFT energy =     -363.825867975648
@    2    -363.82586798 -1.7D-05  0.00071  0.00022  0.00204  0.00731     30.7
         Total DFT energy =     -363.825871980775
         Total DFT energy =   -363.825871980775
@    3    -363.82587198 -4.0D-06  0.00025  0.00010  0.00102  0.00280     36.5
         Total DFT energy =     -363.825872720592
         Total DFT energy =   -363.825872720592
@    4    -363.82587272 -7.4D-07  0.00011  0.00004  0.00037  0.00142     41.1
@    4    -363.82587272 -7.4D-07  0.00011  0.00004  0.00037  0.00142     41.1

 Output coordinates in angstroms (scale by  1.889725989 to convert to a.u.)

  No.       Tag          Charge          X              Y              Z
 ---- ---------------- ---------- -------------- -------------- --------------
    1 C                    6.0000     2.25341027    -0.07787112     0.02144905
    2 C                    6.0000     1.77838113    -1.40536271     0.07726458
    3 C                    6.0000     0.41713643    -1.68174858     0.07878362
    4 C                    6.0000    -0.49737886    -0.61541507     0.02366453
    5 C                    6.0000     1.37574381     0.99887954    -0.03383601
    6 C                    6.0000     0.00626016     0.71505419    -0.03198272
    7 C                    6.0000    -1.93079658    -0.51977375     0.00793806
    8 C                    6.0000    -2.24590580     0.81196925    -0.05439920
    9 H                    1.0000     3.32431776     0.10630648     0.02162221
   10 H                    1.0000     2.49311689    -2.22281494     0.11973227
   11 H                    1.0000     0.05988129    -2.70748377     0.12189595
   12 H                    1.0000     1.73898617     2.02254922    -0.07691403
   13 H                    1.0000    -2.63584674    -1.33905033     0.03925188
   14 H                    1.0000    -3.21068385     1.29918665    -0.08414923
   15 N                    7.0000    -1.08301148     1.56141640    -0.07868625
   16 H                    1.0000    -1.03690899     2.56700564    -0.12334309

         Total DFT energy =     -363.825873364740

                       DFT Final Molecular Orbital Analysis
                       ------------------------------------

 Vector    1  Occ=2.000000D+00  E=-1.437560D+01

 Vector   70  Occ=0.000000D+00  E= 8.160584D-01

 Vector   71  Occ=0.000000D+00  E= 8.194391D-01

 Vector   72  Occ=0.000000D+00  E= 8.259939D-01

 Vector   73  Occ=0.000000D+00  E= 8.448603D-01

 Vector   74  Occ=0.000000D+00  E= 8.541518D-01

 Vector   75  Occ=0.000000D+00  E= 8.555524D-01

 Vector   76  Occ=0.000000D+00  E= 8.689320D-01

 Vector   77  Occ=0.000000D+00  E= 8.933656D-01

 Vector   78  Occ=0.000000D+00  E= 9.145482D-01

 Vector   79  Occ=0.000000D+00  E= 9.451992D-01

 Vector   80  Occ=0.000000D+00  E= 9.761279D-01

 Vector   81  Occ=0.000000D+00  E= 9.840813D-01

 Vector   82  Occ=0.000000D+00  E= 9.865654D-01

 Vector   83  Occ=0.000000D+00  E= 1.054883D+00

 Vector   84  Occ=0.000000D+00  E= 1.073886D+00

 Vector   85  Occ=0.000000D+00  E= 1.125744D+00

 Vector   86  Occ=0.000000D+00  E= 1.139073D+00

 Vector   87  Occ=0.000000D+00  E= 1.209480D+00

 Vector   88  Occ=0.000000D+00  E= 1.244693D+00

 Vector   89  Occ=0.000000D+00  E= 1.261616D+00

 Vector   90  Occ=0.000000D+00  E= 1.303092D+00

 Vector   91  Occ=0.000000D+00  E= 1.334857D+00

 Vector   92  Occ=0.000000D+00  E= 1.353842D+00

 Vector   93  Occ=0.000000D+00  E= 1.379106D+00

 Vector   94  Occ=0.000000D+00  E= 1.426416D+00

 Vector   95  Occ=0.000000D+00  E= 1.438072D+00

 Vector   96  Occ=0.000000D+00  E= 1.471270D+00

 Vector   97  Occ=0.000000D+00  E= 1.479548D+00

 Vector   98  Occ=0.000000D+00  E= 1.501141D+00

 Vector   99  Occ=0.000000D+00  E= 1.510747D+00

 Vector  100  Occ=0.000000D+00  E= 1.515777D+00

 Vector  101  Occ=0.000000D+00  E= 1.560475D+00

 Vector  102  Occ=0.000000D+00  E= 1.610378D+00

 Vector  103  Occ=0.000000D+00  E= 1.756814D+00

 Vector  104  Occ=0.000000D+00  E= 1.809762D+00

 Vector  105  Occ=0.000000D+00  E= 1.828424D+00

 Vector  106  Occ=0.000000D+00  E= 1.897759D+00

 Vector  107  Occ=0.000000D+00  E= 1.898395D+00

 Vector  108  Occ=0.000000D+00  E= 1.916969D+00

 Vector  109  Occ=0.000000D+00  E= 1.952256D+00

 Vector  110  Occ=0.000000D+00  E= 1.965799D+00

 Vector  111  Occ=0.000000D+00  E= 2.006811D+00

 Vector  112  Occ=0.000000D+00  E= 2.009114D+00

 Vector  113  Occ=0.000000D+00  E= 2.056034D+00

 Vector  114  Occ=0.000000D+00  E= 2.102994D+00

 Vector  115  Occ=0.000000D+00  E= 2.136248D+00

 Vector  116  Occ=0.000000D+00  E= 2.146399D+00

 Vector  117  Occ=0.000000D+00  E= 2.176446D+00

 Vector  118  Occ=0.000000D+00  E= 2.230724D+00

 Vector  119  Occ=0.000000D+00  E= 2.253648D+00

 Vector  120  Occ=0.000000D+00  E= 2.264595D+00

 Vector  121  Occ=0.000000D+00  E= 2.270643D+00

 Vector  122  Occ=0.000000D+00  E= 2.283825D+00

 Vector  123  Occ=0.000000D+00  E= 2.386238D+00

 Vector  124  Occ=0.000000D+00  E= 2.391027D+00

 Vector  125  Occ=0.000000D+00  E= 2.412815D+00

 Vector  126  Occ=0.000000D+00  E= 2.490066D+00

 Vector  127  Occ=0.000000D+00  E= 2.568349D+00

 Vector  128  Occ=0.000000D+00  E= 2.593351D+00

 Vector  129  Occ=0.000000D+00  E= 2.625226D+00

 Vector  130  Occ=0.000000D+00  E= 2.673400D+00

 Vector  131  Occ=0.000000D+00  E= 2.677524D+00

 Vector  132  Occ=0.000000D+00  E= 2.724821D+00

 Vector  133  Occ=0.000000D+00  E= 2.775383D+00

 Vector  134  Occ=0.000000D+00  E= 2.803066D+00

 Vector  135  Occ=0.000000D+00  E= 2.841553D+00

 Vector  136  Occ=0.000000D+00  E= 2.902010D+00

 Vector  137  Occ=0.000000D+00  E= 2.967627D+00

 Vector  138  Occ=0.000000D+00  E= 3.081989D+00

 Vector  139  Occ=0.000000D+00  E= 3.228363D+00

 Vector  140  Occ=0.000000D+00  E= 3.441206D+00

 Vector  141  Occ=0.000000D+00  E= 3.997494D+00

 Vector  142  Occ=0.000000D+00  E= 4.099946D+00

 Vector  143  Occ=0.000000D+00  E= 4.114252D+00

 Vector  144  Occ=0.000000D+00  E= 4.161019D+00

 Vector  145  Occ=0.000000D+00  E= 4.210513D+00

 Vector  146  Occ=0.000000D+00  E= 4.329453D+00

 Vector  147  Occ=0.000000D+00  E= 4.407110D+00

 Vector  148  Occ=0.000000D+00  E= 4.460975D+00

 Vector  149  Occ=0.000000D+00  E= 4.767881D+00

     Multipole analysis of the density
     ---------------------------------

     L   x y z        total         alpha         beta         nuclear
     -   - - -        -----         -----         ----         -------
     0   0 0 0     -0.000000    -31.000000    -31.000000     62.000000

     1   1 0 0     -0.348727     -0.262128     -0.262128      0.175528
     1   0 1 0      0.779506      0.380300      0.380300      0.018905
     1   0 0 1     -0.037733     -0.019418     -0.019418      0.001103

     2   2 0 0    -34.418808   -307.887113   -307.887113    581.355419
     2   1 1 0     -1.571399     56.428336     56.428336   -114.428071
     2   1 0 1      0.130245     -4.821269     -4.821269      9.772783
     2   0 2 0    -31.014394   -174.901389   -174.901389    318.788384
     2   0 1 1     -0.501712      7.358440      7.358440    -15.218592

 Zero-Point correction to Energy  =   81.464 kcal/mol  (  0.129822 au)
 Thermal correction to Energy     =   85.440 kcal/mol  (  0.136157 au)
 Thermal correction to Enthalpy   =   86.032 kcal/mol  (  0.137101 au)
 Total Entropy                    =   79.162 cal/mol-K
   - Translational                =   40.169 cal/mol-K (mol. weight = 117.0578)
   - Rotational                   =   28.170 cal/mol-K (symmetry #  =        1)
   - Vibrational                  =   10.822 cal/mol-K
   - Translational                  =    2.979 cal/mol-K
   - Rotational                     =    2.979 cal/mol-K
   - Vibrational                    =   20.479 cal/mol-K
 P.Frequency       -0.00       -0.00       -0.00       -0.00        0.00        0.00
 P.Frequency      214.04      245.84      366.61      402.11      432.97      552.52
 P.Frequency      584.55      616.85      617.49      727.15      754.15      777.66
 P.Frequency      783.40      849.10      860.20      886.29      910.70      921.63
 P.Frequency      965.82     1041.62     1096.11     1118.54     1153.44     1191.34
 P.Frequency     1231.35     1278.21     1312.23     1381.56     1394.76     1463.20
 P.Frequency     1498.52     1541.15     1568.70     1634.91     1677.54     3176.17
 P.Frequency     3183.25     3194.13     3206.02     3255.28     3275.35     3669.99

 Normal Eigenvalue ||           Projected Infra Red Intensities
  Mode   [cm**-1]  || [atomic units] [(debye/angs)**2] [(KM/mol)] [arbitrary]
 ------ ---------- || -------------- ----------------- ---------- -----------
    1       -0.000 ||    0.000012           0.000         0.011       0.011
    2       -0.000 ||    0.000218           0.005         0.212       0.198
    3       -0.000 ||    0.000235           0.005         0.229       0.213
    4       -0.000 ||    0.000001           0.000         0.000       0.000
    5        0.000 ||    0.000922           0.021         0.899       0.836
    6        0.000 ||    0.000197           0.005         0.192       0.179
    7      214.039 ||    0.013622           0.314        13.279      12.355
    8      245.840 ||    0.000142           0.003         0.138       0.129
    9      366.607 ||    0.086831           2.003        84.647      78.755
   10      402.113 ||    0.003842           0.089         3.745       3.484
   11      432.967 ||    0.001110           0.026         1.082       1.007
   12      552.516 ||    0.000064           0.001         0.062       0.058
   13      584.547 ||    0.000809           0.019         0.789       0.734
   14      616.850 ||    0.004469           0.103         4.356       4.053
   15      617.485 ||    0.001142           0.026         1.114       1.036
   16      727.146 ||    0.034012           0.785        33.157      30.849
   17      754.148 ||    0.065651           1.515        64.000      59.545
   18      777.658 ||    0.002378           0.055         2.318       2.157
   19      783.402 ||    0.008124           0.187         7.920       7.369
   20      849.101 ||    0.001994           0.046         1.944       1.808
   21      860.197 ||    0.002874           0.066         2.801       2.606
   22      886.286 ||    0.000282           0.007         0.275       0.256
   23      910.703 ||    0.006317           0.146         6.158       5.730
   24      921.634 ||    0.001787           0.041         1.742       1.621
   25      965.825 ||    0.000030           0.001         0.029       0.027
   26     1041.625 ||    0.004147           0.096         4.043       3.762
   27     1096.114 ||    0.006811           0.157         6.640       6.178
   28     1118.539 ||    0.023161           0.534        22.578      21.007
   29     1153.439 ||    0.000941           0.022         0.917       0.853
   30     1191.341 ||    0.001773           0.041         1.728       1.608
   31     1231.347 ||    0.003251           0.075         3.169       2.948
   32     1278.209 ||    0.011025           0.254        10.748      10.000
   33     1312.227 ||    0.012649           0.292        12.331      11.473
   34     1381.556 ||    0.024738           0.571        24.116      22.437
   35     1394.760 ||    0.007850           0.181         7.653       7.120
   36     1463.196 ||    0.016614           0.383        16.196      15.068
   37     1498.520 ||    0.023812           0.549        23.213      21.597
   38     1541.148 ||    0.003393           0.078         3.307       3.077
   39     1568.697 ||    0.006377           0.147         6.216       5.784
   40     1634.906 ||    0.001639           0.038         1.598       1.487
   41     1677.537 ||    0.003072           0.071         2.995       2.787
   42     3176.174 ||    0.001631           0.038         1.590       1.479
   43     3183.254 ||    0.004433           0.102         4.322       4.021
   44     3194.130 ||    0.041996           0.969        40.940      38.091
   45     3206.022 ||    0.027105           0.625        26.423      24.584
   46     3255.284 ||    0.002183           0.050         2.128       1.980
   47     3275.348 ||    0.006422           0.148         6.260       5.824
   48     3669.993 ||    0.057132           1.318        55.695      51.819
 ----------------------------------------------------------------------------

 Total times  cpu:      199.7s     wall:      153.3s
