============================== echo of input deck ==============================
echo

#print low

MEMORY STACK 1500 mb HEAP 150 mb GLOBAL 1800 mb noverify

start moleculewe40

title "Title"
charge 0

geometry units angstroms print xyz noautoz
   C        0.69852        3.68089       -0.12900
   C        1.37786        2.49651       -0.25419
   C        0.70681        1.24351       -0.13013
   C        1.40322        0.00956       -0.25891
   C        0.70683       -1.22441       -0.13029
   C        1.37792       -2.47736       -0.25459
   C        0.69867       -3.66178       -0.12932
   C        2.79608        0.00954       -0.51657
   C        3.99396        0.00936       -0.73823
   C        5.39175        0.00939       -0.99663
   C        6.09556        1.22383       -1.13404
   C        7.46417        1.21872       -1.38668
   C        8.15505        0.00964       -1.50670
   C        7.46700       -1.19956       -1.37240
   C        6.09838       -1.20492       -1.11979
   H        1.22847        4.62435       -0.22724
   H        2.44475        2.49095       -0.45115
   H        2.44476       -2.47171       -0.45186
   H        1.22869       -4.60521       -0.22747
   H        5.55602        2.16144       -1.04020
   H        7.99470        2.16134       -1.49052
   H        9.22349        0.00972       -1.70377
   H        7.99975       -2.14211       -1.46495
   H        5.56106       -2.14262       -1.01488
   C       -0.69873        3.68085        0.12916
   C       -1.37789        2.49642        0.25484
   C       -0.70671        1.24347        0.13101
   C       -1.40310        0.00950        0.25962
   C       -0.70668       -1.22445        0.13094
   C       -1.37777       -2.47744        0.25479
   C       -0.69856       -3.66182        0.12891
   C       -2.79605        0.00954        0.51672
   C       -3.99406        0.00974        0.73774
   C       -5.39188        0.00974        0.99595
   C       -6.09587        1.22411        1.13311
   C       -7.46438        1.21880        1.38631
   C       -8.15497        0.00962        1.50705
   C       -7.46678       -1.19949        1.37262
   C       -6.09826       -1.20467        1.11952
   H       -1.22882        4.62427        0.22695
   H       -2.44477        2.49076        0.45189
   H       -2.44461       -2.47188        0.45209
   H       -1.22860       -4.60529        0.22651
   H       -5.55653        2.16179        1.03879
   H       -7.99505        2.16136        1.49008
   H       -9.22328        0.00956        1.70476
   H       -7.99934       -2.14210        1.46552
   H       -5.56078       -2.14228        1.01458
end

basis
  * library 6-31G*
end

dft
  xc b3lyp
  iterations 600
  grid fine
  direct
  mult 1
  disp vdw 3
end

tddft
 nroots 2
 algorithm 1
 notriplet
 target 1
 targetsym b2
 civecs
 grad
   root 1
 end
end

task dft optimize

task dft frequencies
================================================================================

         Total DFT energy =    -1153.998351342117
@ Step       Energy      Delta E   Gmax     Grms     Xrms     Xmax   Walltime
@ ---- ---------------- -------- -------- -------- -------- -------- --------
@    0   -1153.99835134  0.0D+00  0.00003  0.00001  0.00000  0.00000     11.7
         Total DFT energy =    -1153.998351331651
         Total DFT energy =  -1153.998351331651
@    1   -1153.99835133  1.0D-08  0.00002  0.00001  0.00002  0.00006     16.6
@    1   -1153.99835133  1.0D-08  0.00002  0.00001  0.00002  0.00006     16.6

 Output coordinates in angstroms (scale by  1.889725989 to convert to a.u.)

  No.       Tag          Charge          X              Y              Z
 ---- ---------------- ---------- -------------- -------------- --------------
    1 C                    6.0000     3.67136400    -0.71045681     0.00002084
    2 C                    6.0000     2.48693867    -1.40117863     0.00008522
    3 C                    6.0000     1.23395944    -0.71872119     0.00001892
    4 C                    6.0000     0.00000000    -1.42691519     0.00000000
    5 C                    6.0000    -1.23395944    -0.71872119    -0.00001892
    6 C                    6.0000    -2.48693867    -1.40117863    -0.00008522
    7 C                    6.0000    -3.67136400    -0.71045681    -0.00002084
    8 C                    6.0000     0.00000000    -2.84337444     0.00000000
    9 C                    6.0000     0.00000000    -4.06159536     0.00000000
   10 C                    6.0000     0.00000000    -5.48307206     0.00000000
   11 C                    6.0000     1.21437848    -6.20022798    -0.00708216
   12 C                    6.0000     1.20913756    -7.59195843    -0.00711408
   13 C                    6.0000     0.00000000    -8.29307546     0.00000000
   14 C                    6.0000    -1.20913756    -7.59195843     0.00711408
   15 C                    6.0000    -1.21437848    -6.20022798     0.00708216
   16 H                    1.0000     4.61480972    -1.24944891    -0.00003531
   17 H                    1.0000     2.48133805    -2.48610347     0.00022059
   18 H                    1.0000    -2.48133805    -2.48610347    -0.00022059
   19 H                    1.0000    -4.61480972    -1.24944891     0.00003531
   20 H                    1.0000     2.15203570    -5.65270389    -0.01260129
   21 H                    1.0000     2.15170999    -8.13260122    -0.01273804
   22 H                    1.0000     0.00000000    -9.37953306     0.00000000
   23 H                    1.0000    -2.15170999    -8.13260122     0.01273804
   24 H                    1.0000    -2.15203570    -5.65270389     0.01260129
   25 C                    6.0000     3.67136400     0.71045681    -0.00002084
   26 C                    6.0000     2.48693867     1.40117863    -0.00008522
   27 C                    6.0000     1.23395944     0.71872119    -0.00001892
   28 C                    6.0000     0.00000000     1.42691519     0.00000000
   29 C                    6.0000    -1.23395944     0.71872119     0.00001892
   30 C                    6.0000    -2.48693867     1.40117863     0.00008522
   31 C                    6.0000    -3.67136400     0.71045681     0.00002084
   32 C                    6.0000     0.00000000     2.84337444     0.00000000
   33 C                    6.0000     0.00000000     4.06159536     0.00000000
   34 C                    6.0000     0.00000000     5.48307206     0.00000000
   35 C                    6.0000     1.21437848     6.20022798     0.00708216
   36 C                    6.0000     1.20913756     7.59195843     0.00711408
   37 C                    6.0000     0.00000000     8.29307546     0.00000000
   38 C                    6.0000    -1.20913756     7.59195843    -0.00711408
   39 C                    6.0000    -1.21437848     6.20022798    -0.00708216
   40 H                    1.0000     4.61480972     1.24944891     0.00003531
   41 H                    1.0000     2.48133805     2.48610347    -0.00022059
   42 H                    1.0000    -2.48133805     2.48610347     0.00022059
   43 H                    1.0000    -4.61480972     1.24944891    -0.00003531
   44 H                    1.0000     2.15203570     5.65270389     0.01260129
   45 H                    1.0000     2.15170999     8.13260122     0.01273804
   46 H                    1.0000     0.00000000     9.37953306     0.00000000
   47 H                    1.0000    -2.15170999     8.13260122    -0.01273804
   48 H                    1.0000    -2.15203570     5.65270389    -0.01260129

         Total DFT energy =    -1153.998351609666

                       DFT Final Molecular Orbital Analysis
                       ------------------------------------

 Vector    1  Occ=2.000000D+00  E=-1.021794D+01

 Vector  407  Occ=0.000000D+00  E= 2.531872D+00

 Vector  408  Occ=0.000000D+00  E= 2.540869D+00

 Vector  409  Occ=0.000000D+00  E= 2.543287D+00

 Vector  410  Occ=0.000000D+00  E= 2.557347D+00

 Vector  411  Occ=0.000000D+00  E= 2.574933D+00

 Vector  412  Occ=0.000000D+00  E= 2.584579D+00

 Vector  413  Occ=0.000000D+00  E= 2.587120D+00

 Vector  414  Occ=0.000000D+00  E= 2.587857D+00

 Vector  415  Occ=0.000000D+00  E= 2.612781D+00

 Vector  416  Occ=0.000000D+00  E= 2.633277D+00

 Vector  417  Occ=0.000000D+00  E= 2.643086D+00

 Vector  418  Occ=0.000000D+00  E= 2.643908D+00

 Vector  419  Occ=0.000000D+00  E= 2.644085D+00

 Vector  420  Occ=0.000000D+00  E= 2.663282D+00

 Vector  421  Occ=0.000000D+00  E= 2.675292D+00

 Vector  422  Occ=0.000000D+00  E= 2.680749D+00

 Vector  423  Occ=0.000000D+00  E= 2.685895D+00

 Vector  424  Occ=0.000000D+00  E= 2.698835D+00

 Vector  425  Occ=0.000000D+00  E= 2.719238D+00

 Vector  426  Occ=0.000000D+00  E= 2.721316D+00

 Vector  427  Occ=0.000000D+00  E= 2.734076D+00

 Vector  428  Occ=0.000000D+00  E= 2.741902D+00

 Vector  429  Occ=0.000000D+00  E= 2.745688D+00

 Vector  430  Occ=0.000000D+00  E= 2.749794D+00

 Vector  431  Occ=0.000000D+00  E= 2.755455D+00

 Vector  432  Occ=0.000000D+00  E= 2.757812D+00

 Vector  433  Occ=0.000000D+00  E= 2.808258D+00

 Vector  434  Occ=0.000000D+00  E= 2.811390D+00

 Vector  435  Occ=0.000000D+00  E= 2.835605D+00

 Vector  436  Occ=0.000000D+00  E= 2.838595D+00

 Vector  437  Occ=0.000000D+00  E= 2.849586D+00

 Vector  438  Occ=0.000000D+00  E= 2.856875D+00

 Vector  439  Occ=0.000000D+00  E= 2.890258D+00

 Vector  440  Occ=0.000000D+00  E= 2.927433D+00

 Vector  441  Occ=0.000000D+00  E= 2.931983D+00

 Vector  442  Occ=0.000000D+00  E= 2.944788D+00

 Vector  443  Occ=0.000000D+00  E= 2.952786D+00

 Vector  444  Occ=0.000000D+00  E= 3.016389D+00

 Vector  445  Occ=0.000000D+00  E= 3.023193D+00

 Vector  446  Occ=0.000000D+00  E= 3.116306D+00

 Vector  447  Occ=0.000000D+00  E= 3.151119D+00

 Vector  448  Occ=0.000000D+00  E= 3.268945D+00

 Vector  449  Occ=0.000000D+00  E= 3.273218D+00

 Vector  450  Occ=0.000000D+00  E= 3.288015D+00

 Vector  451  Occ=0.000000D+00  E= 3.370143D+00

 Vector  452  Occ=0.000000D+00  E= 3.377303D+00

 Vector  453  Occ=0.000000D+00  E= 3.451530D+00

 Vector  454  Occ=0.000000D+00  E= 3.516408D+00

 Vector  455  Occ=0.000000D+00  E= 3.576639D+00

 Vector  456  Occ=0.000000D+00  E= 3.647162D+00

 Vector  457  Occ=0.000000D+00  E= 4.058698D+00

 Vector  458  Occ=0.000000D+00  E= 4.069229D+00

 Vector  459  Occ=0.000000D+00  E= 4.083620D+00

 Vector  460  Occ=0.000000D+00  E= 4.087395D+00

 Vector  461  Occ=0.000000D+00  E= 4.089669D+00

 Vector  462  Occ=0.000000D+00  E= 4.094102D+00

 Vector  463  Occ=0.000000D+00  E= 4.111276D+00

 Vector  464  Occ=0.000000D+00  E= 4.111646D+00

 Vector  465  Occ=0.000000D+00  E= 4.111849D+00

 Vector  466  Occ=0.000000D+00  E= 4.125992D+00

 Vector  467  Occ=0.000000D+00  E= 4.137411D+00

 Vector  468  Occ=0.000000D+00  E= 4.138729D+00

 Vector  469  Occ=0.000000D+00  E= 4.169086D+00

 Vector  470  Occ=0.000000D+00  E= 4.195476D+00

 Vector  471  Occ=0.000000D+00  E= 4.273132D+00

 Vector  472  Occ=0.000000D+00  E= 4.280278D+00

 Vector  473  Occ=0.000000D+00  E= 4.319408D+00

 Vector  474  Occ=0.000000D+00  E= 4.321740D+00

 Vector  475  Occ=0.000000D+00  E= 4.340547D+00

 Vector  476  Occ=0.000000D+00  E= 4.349935D+00

 Vector  477  Occ=0.000000D+00  E= 4.364509D+00

 Vector  478  Occ=0.000000D+00  E= 4.399602D+00

 Vector  479  Occ=0.000000D+00  E= 4.503835D+00

 Vector  480  Occ=0.000000D+00  E= 4.517938D+00

 Vector  481  Occ=0.000000D+00  E= 4.613584D+00

 Vector  482  Occ=0.000000D+00  E= 4.659136D+00

 Vector  483  Occ=0.000000D+00  E= 4.702567D+00

 Vector  484  Occ=0.000000D+00  E= 4.831483D+00

 Vector  485  Occ=0.000000D+00  E= 4.960139D+00

 Vector  486  Occ=0.000000D+00  E= 5.081197D+00

     Multipole analysis of the density
     ---------------------------------

     L   x y z        total         alpha         beta         nuclear
     -   - - -        -----         -----         ----         -------
     0   0 0 0     -0.000000    -99.000000    -99.000000    198.000000

     1   1 0 0     -0.000000     -0.000000     -0.000000      0.000000
     1   0 1 0      0.000000      0.000000      0.000000      0.000000
     1   0 0 1     -0.000000     -0.000000     -0.000000      0.000000

     2   2 0 0   -109.096005  -1350.512908  -1350.512908   2591.929812
     2   1 1 0      0.000000      0.000000      0.000000     -0.000000
     2   1 0 1      0.000000      0.000000      0.000000     -0.000000
     2   0 2 0    -95.485595  -8051.093176  -8051.093176  16006.700758
     2   0 1 1     -0.000000     -0.000000     -0.000000      0.000000

 Zero-Point correction to Energy  =  236.112 kcal/mol  (  0.376269 au)
 Thermal correction to Energy     =  250.737 kcal/mol  (  0.399575 au)
 Thermal correction to Enthalpy   =  251.329 kcal/mol  (  0.400519 au)
 Total Entropy                    =  169.709 cal/mol-K
   - Translational                =   43.663 cal/mol-K (mol. weight = 378.1409)
   - Rotational                   =   34.049 cal/mol-K (symmetry #  =        4)
   - Vibrational                  =   91.997 cal/mol-K
   - Translational                  =    2.979 cal/mol-K
   - Rotational                     =    2.979 cal/mol-K
   - Vibrational                    =   86.938 cal/mol-K
 P.Frequency       -0.00       -0.00       -0.00       -0.00        0.00        0.00
 P.Frequency       12.56       15.55       16.56       18.69       34.82       48.11
 P.Frequency       70.90      111.06      118.58      121.80      122.63      127.16
 P.Frequency      169.95      192.86      232.90      240.56      266.35      346.51
 P.Frequency      361.84      380.29      390.08      399.17      411.82      411.85
 P.Frequency      445.65      451.38      453.00      484.94      489.86      506.50
 P.Frequency      526.23      538.26      540.61      547.63      553.47      585.34
 P.Frequency      618.47      629.14      635.40      636.59      669.30      676.69
 P.Frequency      682.17      702.00      702.04      714.86      751.44      771.61
 P.Frequency      771.81      777.90      782.55      788.57      792.83      839.69
 P.Frequency      852.13      852.17      878.10      879.61      914.68      924.43
 P.Frequency      924.44      945.43      964.96      965.43      965.69      966.37
 P.Frequency      993.65      994.68      995.68      995.87     1014.22     1014.39
 P.Frequency     1041.84     1051.38     1055.59     1061.75     1062.27     1083.49
 P.Frequency     1113.67     1113.71     1141.72     1195.07     1199.51     1202.32
 P.Frequency     1202.32     1213.67     1218.63     1219.02     1260.58     1264.01
 P.Frequency     1270.78     1301.63     1315.33     1328.60     1328.74     1355.54
 P.Frequency     1366.06     1366.07     1408.32     1415.78     1440.38     1457.90
 P.Frequency     1488.00     1488.03     1489.24     1491.13     1529.54     1545.04
 P.Frequency     1546.31     1562.57     1576.43     1605.38     1623.44     1623.45
 P.Frequency     1656.80     1657.71     1669.53     1681.36     2287.26     2296.34
 P.Frequency     3182.67     3182.69     3184.83     3184.95     3190.95     3190.95
 P.Frequency     3199.03     3199.11     3202.15     3202.17     3209.23     3209.25
 P.Frequency     3214.61     3214.71     3215.72     3215.99     3219.24     3219.82

 Normal Eigenvalue ||           Projected Infra Red Intensities
  Mode   [cm**-1]  || [atomic units] [(debye/angs)**2] [(KM/mol)] [arbitrary]
 ------ ---------- || -------------- ----------------- ---------- -----------
    1       -0.000 ||    0.000000           0.000         0.000       0.000
    2       -0.000 ||    0.000000           0.000         0.000       0.000
    3       -0.000 ||    0.000000           0.000         0.000       0.000
    4       -0.000 ||    0.000000           0.000         0.000       0.000
    5        0.000 ||    0.000000           0.000         0.000       0.000
    6        0.000 ||    0.000000           0.000         0.000       0.000
    7       12.557 ||    0.000116           0.003         0.113       0.191
    8       15.550 ||    0.000000           0.000         0.000       0.000
    9       16.563 ||    0.000000           0.000         0.000       0.000
   10       18.685 ||    0.000139           0.003         0.135       0.229
   11       34.823 ||    0.000000           0.000         0.000       0.000
   12       48.106 ||    0.000000           0.000         0.000       0.000
   13       70.905 ||    0.001746           0.040         1.702       2.880
   14      111.059 ||    0.000000           0.000         0.000       0.000
   15      118.577 ||    0.000000           0.000         0.000       0.000
   16      121.797 ||    0.000018           0.000         0.018       0.030
   17      122.634 ||    0.000351           0.008         0.342       0.579
   18      127.160 ||    0.000000           0.000         0.000       0.000
   19      169.945 ||    0.000000           0.000         0.000       0.000
   20      192.856 ||    0.004552           0.105         4.437       7.506
   21      232.899 ||    0.000000           0.000         0.000       0.000
   22      240.560 ||    0.000000           0.000         0.000       0.000
   23      266.347 ||    0.000003           0.000         0.003       0.005
   24      346.513 ||    0.000051           0.001         0.049       0.083
   25      361.839 ||    0.000000           0.000         0.000       0.000
   26      380.290 ||    0.000000           0.000         0.000       0.000
   27      390.081 ||    0.000003           0.000         0.003       0.005
   28      399.170 ||    0.000000           0.000         0.000       0.000
   29      411.818 ||    0.000000           0.000         0.000       0.000
   30      411.855 ||    0.000000           0.000         0.000       0.000
   31      445.647 ||    0.004247           0.098         4.140       7.004
   32      451.380 ||    0.000001           0.000         0.001       0.002
   33      453.001 ||    0.002288           0.053         2.231       3.774
   34      484.941 ||    0.000000           0.000         0.000       0.000
   35      489.856 ||    0.000000           0.000         0.000       0.000
   36      506.504 ||    0.000000           0.000         0.000       0.000
   37      526.225 ||    0.000000           0.000         0.000       0.000
   38      538.264 ||    0.000000           0.000         0.000       0.000
   39      540.608 ||    0.000783           0.018         0.764       1.292
   40      547.628 ||    0.005099           0.118         4.971       8.409
   41      553.468 ||    0.000000           0.000         0.000       0.000
   42      585.336 ||    0.022971           0.530        22.393      37.880
   43      618.466 ||    0.000000           0.000         0.000       0.000
   44      629.144 ||    0.007160           0.165         6.980      11.808
   45      635.399 ||    0.000000           0.000         0.000       0.000
   46      636.585 ||    0.000182           0.004         0.177       0.299
   47      669.303 ||    0.025883           0.597        25.232      42.682
   48      676.690 ||    0.000000           0.000         0.000       0.000
   49      682.168 ||    0.000000           0.000         0.000       0.000
   50      701.999 ||    0.000001           0.000         0.001       0.002
   51      702.042 ||    0.038938           0.898        37.959      64.212
   52      714.865 ||    0.044292           1.022        43.178      73.040
   53      751.443 ||    0.000000           0.000         0.000       0.000
   54      771.606 ||    0.000002           0.000         0.002       0.004
   55      771.812 ||    0.075455           1.741        73.558     124.431
   56      777.896 ||    0.000000           0.000         0.000       0.000
   57      782.550 ||    0.000000           0.000         0.000       0.000
   58      788.574 ||    0.072043           1.662        70.231     118.804
   59      792.831 ||    0.000000           0.000         0.000       0.000
   60      839.687 ||    0.004081           0.094         3.978       6.730
   61      852.131 ||    0.000000           0.000         0.000       0.000
   62      852.170 ||    0.000000           0.000         0.000       0.000
   63      878.098 ||    0.000000           0.000         0.000       0.000
   64      879.612 ||    0.000000           0.000         0.000       0.000
   65      914.684 ||    0.000037           0.001         0.036       0.060
   66      924.430 ||    0.005661           0.131         5.519       9.336
   67      924.436 ||    0.000000           0.000         0.000       0.000
   68      945.429 ||    0.000000           0.000         0.000       0.000
   69      964.960 ||    0.000000           0.000         0.000       0.000
   70      965.427 ||    0.000598           0.014         0.583       0.986
   71      965.687 ||    0.000000           0.000         0.000       0.000
   72      966.367 ||    0.000000           0.000         0.000       0.000
   73      993.652 ||    0.000000           0.000         0.000       0.000
   74      994.677 ||    0.000000           0.000         0.000       0.000
   75      995.675 ||    0.000128           0.003         0.125       0.211
   76      995.867 ||    0.000000           0.000         0.000       0.000
   77     1014.218 ||    0.000092           0.002         0.089       0.151
   78     1014.393 ||    0.000000           0.000         0.000       0.000
   79     1041.841 ||    0.000795           0.018         0.775       1.312
   80     1051.385 ||    0.000000           0.000         0.000       0.000
   81     1055.594 ||    0.000000           0.000         0.000       0.000
   82     1061.752 ||    0.005332           0.123         5.198       8.793
   83     1062.269 ||    0.007975           0.184         7.775      13.152
   84     1083.492 ||    0.000000           0.000         0.000       0.000
   85     1113.668 ||    0.000000           0.000         0.000       0.000
   86     1113.706 ||    0.008296           0.191         8.087      13.681
   87     1141.718 ||    0.000000           0.000         0.000       0.000
   88     1195.070 ||    0.002723           0.063         2.655       4.491
   89     1199.510 ||    0.000973           0.022         0.948       1.604
   90     1202.316 ||    0.000000           0.000         0.000       0.000
   91     1202.321 ||    0.000000           0.000         0.000       0.000
   92     1213.668 ||    0.000000           0.000         0.000       0.000
   93     1218.632 ||    0.000000           0.000         0.000       0.000
   94     1219.020 ||    0.002507           0.058         2.444       4.135
   95     1260.581 ||    0.000000           0.000         0.000       0.000
   96     1264.011 ||    0.000000           0.000         0.000       0.000
   97     1270.776 ||    0.000374           0.009         0.365       0.617
   98     1301.626 ||    0.001083           0.025         1.056       1.786
   99     1315.334 ||    0.000026           0.001         0.026       0.044
  100     1328.596 ||    0.000000           0.000         0.000       0.000
  101     1328.741 ||    0.000033           0.001         0.032       0.054
  102     1355.537 ||    0.000000           0.000         0.000       0.000
  103     1366.061 ||    0.000000           0.000         0.000       0.000
  104     1366.072 ||    0.000968           0.022         0.944       1.597
  105     1408.319 ||    0.000000           0.000         0.000       0.000
  106     1415.780 ||    0.000000           0.000         0.000       0.000
  107     1440.382 ||    0.035716           0.824        34.818      58.898
  108     1457.900 ||    0.000000           0.000         0.000       0.000
  109     1487.995 ||    0.011643           0.269        11.350      19.200
  110     1488.030 ||    0.000000           0.000         0.000       0.001
  111     1489.238 ||    0.002547           0.059         2.483       4.201
  112     1491.130 ||    0.011427           0.264        11.140      18.844
  113     1529.540 ||    0.000000           0.000         0.000       0.000
  114     1545.037 ||    0.092937           2.144        90.599     153.258
  115     1546.313 ||    0.000000           0.000         0.000       0.000
  116     1562.572 ||    0.000000           0.000         0.000       0.000
  117     1576.429 ||    0.005988           0.138         5.837       9.874
  118     1605.378 ||    0.000000           0.000         0.000       0.000
  119     1623.439 ||    0.004260           0.098         4.153       7.026
  120     1623.447 ||    0.000000           0.000         0.000       0.000
  121     1656.803 ||    0.052627           1.214        51.304      86.785
  122     1657.706 ||    0.000000           0.000         0.000       0.000
  123     1669.535 ||    0.000000           0.000         0.000       0.000
  124     1681.361 ||    0.010755           0.248        10.485      17.736
  125     2287.255 ||    0.000000           0.000         0.000       0.000
  126     2296.342 ||    0.001660           0.038         1.619       2.738
  127     3182.670 ||    0.012526           0.289        12.211      20.657
  128     3182.695 ||    0.000000           0.000         0.000       0.000
  129     3184.829 ||    0.016189           0.373        15.782      26.697
  130     3184.955 ||    0.000000           0.000         0.000       0.000
  131     3190.952 ||    0.000000           0.000         0.000       0.001
  132     3190.953 ||    0.009693           0.224         9.449      15.984
  133     3199.032 ||    0.031128           0.718        30.345      51.332
  134     3199.112 ||    0.000000           0.000         0.000       0.000
  135     3202.146 ||    0.047793           1.103        46.591      78.813
  136     3202.169 ||    0.000000           0.000         0.000       0.000
  137     3209.234 ||    0.000002           0.000         0.002       0.003
  138     3209.253 ||    0.052769           1.217        51.441      87.019
  139     3214.607 ||    0.064425           1.486        62.805     106.241
  140     3214.708 ||    0.000000           0.000         0.000       0.000
  141     3215.722 ||    0.000000           0.000         0.000       0.000
  142     3215.992 ||    0.016489           0.380        16.074      27.191
  143     3219.239 ||    0.044638           1.030        43.515      73.611
  144     3219.817 ||    0.000000           0.000         0.000       0.000
 ----------------------------------------------------------------------------

 Total times  cpu:      909.2s     wall:      992.6s
