============================== echo of input deck ==============================
echo

#print low

MEMORY STACK 1500 mb HEAP 150 mb GLOBAL 1800 mb noverify

start molesdf40

title "Title"
charge 0

geometry units angstroms print xyz noautoz
   C        3.67136       -0.71046        0.00002
   C        2.48694       -1.40118        0.00009
   C        1.23396       -0.71872        0.00002
   C        0.00000       -1.42692        0.00000
   C       -1.23396       -0.71872       -0.00002
   C       -2.48694       -1.40118       -0.00009
   C       -3.67136       -0.71046       -0.00002
   C        0.00000       -2.84337        0.00000
   C        0.00000       -4.06160        0.00000
   C        0.00000       -5.48307        0.00000
   C        1.21438       -6.20023       -0.00708
   C        1.20914       -7.59196       -0.00711
   C        0.00000       -8.29308        0.00000
   C       -1.20914       -7.59196        0.00711
   C       -1.21438       -6.20023        0.00708
   H        4.61481       -1.24945       -0.00004
   H        2.48134       -2.48610        0.00022
   H       -2.48134       -2.48610       -0.00022
   H       -4.61481       -1.24945        0.00004
   H        2.15204       -5.65270       -0.01260
   H        2.15171       -8.13260       -0.01274
   H        0.00000       -9.37953        0.00000
   H       -2.15171       -8.13260        0.01274
   H       -2.15204       -5.65270        0.01260
   C        3.67136        0.71046       -0.00002
   C        2.48694        1.40118       -0.00009
   C        1.23396        0.71872       -0.00002
   C        0.00000        1.42692        0.00000
   C       -1.23396        0.71872        0.00002
   C       -2.48694        1.40118        0.00009
   C       -3.67136        0.71046        0.00002
   C        0.00000        2.84337        0.00000
   C        0.00000        4.06160        0.00000
   C        0.00000        5.48307        0.00000
   C        1.21438        6.20023        0.00708
   C        1.20914        7.59196        0.00711
   C        0.00000        8.29308        0.00000
   C       -1.20914        7.59196       -0.00711
   C       -1.21438        6.20023       -0.00708
   H        4.61481        1.24945        0.00004
   H        2.48134        2.48610       -0.00022
   H       -2.48134        2.48610        0.00022
   H       -4.61481        1.24945       -0.00004
   H        2.15204        5.65270        0.01260
   H        2.15171        8.13260        0.01274
   H        0.00000        9.37953        0.00000
   H       -2.15171        8.13260       -0.01274
   H       -2.15204        5.65270       -0.01260
end

basis
  * library 6-31G*
end

dft
  xc b3lyp
  iterations 600
  grid fine
  direct
  mult 1
  disp vdw 3
end

tddft
 nroots 3
 notriplet
end

task tddft
================================================================================

 Output coordinates in angstroms (scale by  1.889725989 to convert to a.u.)

  No.       Tag          Charge          X              Y              Z
 ---- ---------------- ---------- -------------- -------------- --------------
    1 C                    6.0000     3.67136000    -0.71046000     0.00002000
    2 C                    6.0000     2.48694000    -1.40118000     0.00009000
    3 C                    6.0000     1.23396000    -0.71872000     0.00002000
    4 C                    6.0000     0.00000000    -1.42692000     0.00000000
    5 C                    6.0000    -1.23396000    -0.71872000    -0.00002000
    6 C                    6.0000    -2.48694000    -1.40118000    -0.00009000
    7 C                    6.0000    -3.67136000    -0.71046000    -0.00002000
    8 C                    6.0000     0.00000000    -2.84337000     0.00000000
    9 C                    6.0000     0.00000000    -4.06160000     0.00000000
   10 C                    6.0000     0.00000000    -5.48307000     0.00000000
   11 C                    6.0000     1.21438000    -6.20023000    -0.00708000
   12 C                    6.0000     1.20914000    -7.59196000    -0.00711000
   13 C                    6.0000     0.00000000    -8.29308000     0.00000000
   14 C                    6.0000    -1.20914000    -7.59196000     0.00711000
   15 C                    6.0000    -1.21438000    -6.20023000     0.00708000
   16 H                    1.0000     4.61481000    -1.24945000    -0.00004000
   17 H                    1.0000     2.48134000    -2.48610000     0.00022000
   18 H                    1.0000    -2.48134000    -2.48610000    -0.00022000
   19 H                    1.0000    -4.61481000    -1.24945000     0.00004000
   20 H                    1.0000     2.15204000    -5.65270000    -0.01260000
   21 H                    1.0000     2.15171000    -8.13260000    -0.01274000
   22 H                    1.0000     0.00000000    -9.37953000     0.00000000
   23 H                    1.0000    -2.15171000    -8.13260000     0.01274000
   24 H                    1.0000    -2.15204000    -5.65270000     0.01260000
   25 C                    6.0000     3.67136000     0.71046000    -0.00002000
   26 C                    6.0000     2.48694000     1.40118000    -0.00009000
   27 C                    6.0000     1.23396000     0.71872000    -0.00002000
   28 C                    6.0000     0.00000000     1.42692000     0.00000000
   29 C                    6.0000    -1.23396000     0.71872000     0.00002000
   30 C                    6.0000    -2.48694000     1.40118000     0.00009000
   31 C                    6.0000    -3.67136000     0.71046000     0.00002000
   32 C                    6.0000     0.00000000     2.84337000     0.00000000
   33 C                    6.0000     0.00000000     4.06160000     0.00000000
   34 C                    6.0000     0.00000000     5.48307000     0.00000000
   35 C                    6.0000     1.21438000     6.20023000     0.00708000
   36 C                    6.0000     1.20914000     7.59196000     0.00711000
   37 C                    6.0000     0.00000000     8.29308000     0.00000000
   38 C                    6.0000    -1.20914000     7.59196000    -0.00711000
   39 C                    6.0000    -1.21438000     6.20023000    -0.00708000
   40 H                    1.0000     4.61481000     1.24945000     0.00004000
   41 H                    1.0000     2.48134000     2.48610000    -0.00022000
   42 H                    1.0000    -2.48134000     2.48610000     0.00022000
   43 H                    1.0000    -4.61481000     1.24945000    -0.00004000
   44 H                    1.0000     2.15204000     5.65270000     0.01260000
   45 H                    1.0000     2.15171000     8.13260000     0.01274000
   46 H                    1.0000     0.00000000     9.37953000     0.00000000
   47 H                    1.0000    -2.15171000     8.13260000    -0.01274000
   48 H                    1.0000    -2.15204000     5.65270000    -0.01260000

         Total DFT energy =    -1153.998348310952

                       DFT Final Molecular Orbital Analysis
                       ------------------------------------

 Vector    1  Occ=2.000000D+00  E=-1.021794D+01  Symmetry=b2

 Vector  407  Occ=0.000000D+00  E= 2.531519D+00  Symmetry=a1

 Vector  408  Occ=0.000000D+00  E= 2.540832D+00  Symmetry=b3

 Vector  409  Occ=0.000000D+00  E= 2.545252D+00  Symmetry=b2

 Vector  410  Occ=0.000000D+00  E= 2.557270D+00  Symmetry=b1

 Vector  411  Occ=0.000000D+00  E= 2.574916D+00  Symmetry=a1

 Vector  412  Occ=0.000000D+00  E= 2.584575D+00  Symmetry=a1

 Vector  413  Occ=0.000000D+00  E= 2.587133D+00  Symmetry=b3

 Vector  414  Occ=0.000000D+00  E= 2.587835D+00  Symmetry=b1

 Vector  415  Occ=0.000000D+00  E= 2.613234D+00  Symmetry=b2

 Vector  416  Occ=0.000000D+00  E= 2.633216D+00  Symmetry=a1

 Vector  417  Occ=0.000000D+00  E= 2.643076D+00  Symmetry=b3

 Vector  418  Occ=0.000000D+00  E= 2.643902D+00  Symmetry=a1

 Vector  419  Occ=0.000000D+00  E= 2.644080D+00  Symmetry=b2

 Vector  420  Occ=0.000000D+00  E= 2.663267D+00  Symmetry=a1

 Vector  421  Occ=0.000000D+00  E= 2.675394D+00  Symmetry=b3

 Vector  422  Occ=0.000000D+00  E= 2.680861D+00  Symmetry=b2

 Vector  423  Occ=0.000000D+00  E= 2.685426D+00  Symmetry=b1

 Vector  424  Occ=0.000000D+00  E= 2.698761D+00  Symmetry=b1

 Vector  425  Occ=0.000000D+00  E= 2.719283D+00  Symmetry=a1

 Vector  426  Occ=0.000000D+00  E= 2.721242D+00  Symmetry=b2

 Vector  427  Occ=0.000000D+00  E= 2.734136D+00  Symmetry=a1

 Vector  428  Occ=0.000000D+00  E= 2.742045D+00  Symmetry=b2

 Vector  429  Occ=0.000000D+00  E= 2.745680D+00  Symmetry=b3

 Vector  430  Occ=0.000000D+00  E= 2.749651D+00  Symmetry=b1

 Vector  431  Occ=0.000000D+00  E= 2.755220D+00  Symmetry=a1

 Vector  432  Occ=0.000000D+00  E= 2.757828D+00  Symmetry=b3

 Vector  433  Occ=0.000000D+00  E= 2.808434D+00  Symmetry=b2

 Vector  434  Occ=0.000000D+00  E= 2.811447D+00  Symmetry=a1

 Vector  435  Occ=0.000000D+00  E= 2.835483D+00  Symmetry=b1

 Vector  436  Occ=0.000000D+00  E= 2.838591D+00  Symmetry=b3

 Vector  437  Occ=0.000000D+00  E= 2.849818D+00  Symmetry=b2

 Vector  438  Occ=0.000000D+00  E= 2.856685D+00  Symmetry=a1

 Vector  439  Occ=0.000000D+00  E= 2.890106D+00  Symmetry=b1

 Vector  440  Occ=0.000000D+00  E= 2.927425D+00  Symmetry=b1

 Vector  441  Occ=0.000000D+00  E= 2.931943D+00  Symmetry=b2

 Vector  442  Occ=0.000000D+00  E= 2.944778D+00  Symmetry=b3

 Vector  443  Occ=0.000000D+00  E= 2.952553D+00  Symmetry=b1

 Vector  444  Occ=0.000000D+00  E= 3.016124D+00  Symmetry=a1

 Vector  445  Occ=0.000000D+00  E= 3.023217D+00  Symmetry=b3

 Vector  446  Occ=0.000000D+00  E= 3.116077D+00  Symmetry=b1

 Vector  447  Occ=0.000000D+00  E= 3.150379D+00  Symmetry=b2

 Vector  448  Occ=0.000000D+00  E= 3.268931D+00  Symmetry=b3

 Vector  449  Occ=0.000000D+00  E= 3.273062D+00  Symmetry=b1

 Vector  450  Occ=0.000000D+00  E= 3.288164D+00  Symmetry=b2

 Vector  451  Occ=0.000000D+00  E= 3.370362D+00  Symmetry=b2

 Vector  452  Occ=0.000000D+00  E= 3.377385D+00  Symmetry=a1

 Vector  453  Occ=0.000000D+00  E= 3.451483D+00  Symmetry=b2

 Vector  454  Occ=0.000000D+00  E= 3.516254D+00  Symmetry=b1

 Vector  455  Occ=0.000000D+00  E= 3.576576D+00  Symmetry=a1

 Vector  456  Occ=0.000000D+00  E= 3.647149D+00  Symmetry=b2

 Vector  457  Occ=0.000000D+00  E= 4.058674D+00  Symmetry=a1

 Vector  458  Occ=0.000000D+00  E= 4.069226D+00  Symmetry=b2

 Vector  459  Occ=0.000000D+00  E= 4.083607D+00  Symmetry=a1

 Vector  460  Occ=0.000000D+00  E= 4.087381D+00  Symmetry=b3

 Vector  461  Occ=0.000000D+00  E= 4.089667D+00  Symmetry=b2

 Vector  462  Occ=0.000000D+00  E= 4.094100D+00  Symmetry=a1

 Vector  463  Occ=0.000000D+00  E= 4.111275D+00  Symmetry=b1

 Vector  464  Occ=0.000000D+00  E= 4.111595D+00  Symmetry=a1

 Vector  465  Occ=0.000000D+00  E= 4.111847D+00  Symmetry=b3

 Vector  466  Occ=0.000000D+00  E= 4.125979D+00  Symmetry=b3

 Vector  467  Occ=0.000000D+00  E= 4.137399D+00  Symmetry=b1

 Vector  468  Occ=0.000000D+00  E= 4.138884D+00  Symmetry=b2

 Vector  469  Occ=0.000000D+00  E= 4.169112D+00  Symmetry=b2

 Vector  470  Occ=0.000000D+00  E= 4.195454D+00  Symmetry=a1

 Vector  471  Occ=0.000000D+00  E= 4.273216D+00  Symmetry=b2

 Vector  472  Occ=0.000000D+00  E= 4.280243D+00  Symmetry=a1

 Vector  473  Occ=0.000000D+00  E= 4.319390D+00  Symmetry=b3

 Vector  474  Occ=0.000000D+00  E= 4.321724D+00  Symmetry=b1

 Vector  475  Occ=0.000000D+00  E= 4.340563D+00  Symmetry=b3

 Vector  476  Occ=0.000000D+00  E= 4.349906D+00  Symmetry=b1

 Vector  477  Occ=0.000000D+00  E= 4.364463D+00  Symmetry=a1

 Vector  478  Occ=0.000000D+00  E= 4.399574D+00  Symmetry=b2

 Vector  479  Occ=0.000000D+00  E= 4.503862D+00  Symmetry=b2

 Vector  480  Occ=0.000000D+00  E= 4.517936D+00  Symmetry=a1

 Vector  481  Occ=0.000000D+00  E= 4.613660D+00  Symmetry=b2

 Vector  482  Occ=0.000000D+00  E= 4.658937D+00  Symmetry=b1

 Vector  483  Occ=0.000000D+00  E= 4.702533D+00  Symmetry=a1

 Vector  484  Occ=0.000000D+00  E= 4.831550D+00  Symmetry=b2

 Vector  485  Occ=0.000000D+00  E= 4.959993D+00  Symmetry=a1

 Vector  486  Occ=0.000000D+00  E= 5.081349D+00  Symmetry=b2

     Multipole analysis of the density
     ---------------------------------

     L   x y z        total         alpha         beta         nuclear
     -   - - -        -----         -----         ----         -------
     0   0 0 0     -0.000000    -99.000000    -99.000000    198.000000

     1   1 0 0      0.000000      0.000000      0.000000      0.000000
     1   0 1 0      0.000000      0.000000      0.000000     -0.000000
     1   0 0 1     -0.000000     -0.000000     -0.000000      0.000000

     2   2 0 0   -109.090703  -1350.509974  -1350.509974   2591.929246
     2   1 1 0     -0.000000     -0.000000     -0.000000      0.000000
     2   1 0 1     -0.000000     -0.000000     -0.000000      0.000000
     2   0 2 0    -95.473052  -8051.090216  -8051.090216  16006.707379
     2   0 1 1      0.000000      0.000000      0.000000     -0.000000

  Root   1 singlet b2             0.090611561 a.u.                2.4657 eV
     Dipole Oscillator Strength                    0.8390238237
  Root   2 singlet b2             0.130694168 a.u.                3.5564 eV
     Dipole Oscillator Strength                    0.0300289586
  Root   3 singlet a1             0.131797363 a.u.                3.5864 eV
     Dipole Oscillator Strength                    0.0000000000
 Total times  cpu:       98.0s     wall:      117.3s
